# vtk DataFile Version 3.0
TPZGeoMesh VTK Visualization
ASCII

DATASET UNSTRUCTURED_GRID
POINTS 14358 float
0.441353 0.0877906 0 
0.45 0 0 
0.363227 0.0380543 0 
0.441353 0.0877906 0 
0.45 0 0 
0.363227 0.0380543 0 
0.45 0 0 
0.441353 -0.0877906 0 
0.384421 -0.0378621 0 
0.45 0 0 
0.441353 -0.0877906 0 
0.384421 -0.0378621 0 
0.363227 0.0380543 0 
0.45 0 0 
0.384421 -0.0378621 0 
0.363227 0.0380543 0 
0.45 0 0 
0.384421 -0.0378621 0 
0 0.45 0 
0.0877906 0.441353 0 
0.0381609 0.387454 0 
0 0.45 0 
0.0877906 0.441353 0 
0.0381609 0.387454 0 
-0.0877906 0.441353 0 
0 0.45 0 
-0.0339688 0.375665 0 
-0.0877906 0.441353 0 
0 0.45 0 
-0.0339688 0.375665 0 
-0.0339688 0.375665 0 
0 0.45 0 
0.0381609 0.387454 0 
-0.0339688 0.375665 0 
0 0.45 0 
0.0381609 0.387454 0 
-0.45 0 0 
-0.441353 0.0877906 0 
-0.389559 0.0336032 0 
-0.45 0 0 
-0.441353 0.0877906 0 
-0.389559 0.0336032 0 
-0.441353 -0.0877906 0 
-0.45 0 0 
-0.379429 -0.0366192 0 
-0.441353 -0.0877906 0 
-0.45 0 0 
-0.379429 -0.0366192 0 
-0.379429 -0.0366192 0 
-0.45 0 0 
-0.389559 0.0336032 0 
-0.379429 -0.0366192 0 
-0.45 0 0 
-0.389559 0.0336032 0 
0 -0.45 0 
-0.0877906 -0.441353 0 
-0.0383965 -0.372403 0 
0 -0.45 0 
-0.0877906 -0.441353 0 
-0.0383965 -0.372403 0 
0.0877906 -0.441353 0 
0 -0.45 0 
0.0404591 -0.377182 0 
0.0877906 -0.441353 0 
0 -0.45 0 
0.0404591 -0.377182 0 
0.0404591 -0.377182 0 
0 -0.45 0 
-0.0383965 -0.372403 0 
0.0404591 -0.377182 0 
0 -0.45 0 
-0.0383965 -0.372403 0 
0.415746 0.172208 0 
0.441353 0.0877906 0 
0.369533 0.112832 0 
0.415746 0.172208 0 
0.441353 0.0877906 0 
0.369533 0.112832 0 
0.441353 0.0877906 0 
0.363227 0.0380543 0 
0.369533 0.112832 0 
0.441353 0.0877906 0 
0.363227 0.0380543 0 
0.369533 0.112832 0 
0.374161 0.250007 0 
0.415746 0.172208 0 
0.329177 0.174808 0 
0.374161 0.250007 0 
0.415746 0.172208 0 
0.329177 0.174808 0 
0.329177 0.174808 0 
0.415746 0.172208 0 
0.369533 0.112832 0 
0.329177 0.174808 0 
0.415746 0.172208 0 
0.369533 0.112832 0 
0.318198 0.318198 0 
0.374161 0.250007 0 
0.297412 0.240191 0 
0.318198 0.318198 0 
0.374161 0.250007 0 
0.297412 0.240191 0 
0.374161 0.250007 0 
0.329177 0.174808 0 
0.297412 0.240191 0 
0.374161 0.250007 0 
0.329177 0.174808 0 
0.297412 0.240191 0 
0.250007 0.374161 0 
0.318198 0.318198 0 
0.228237 0.281807 0 
0.250007 0.374161 0 
0.318198 0.318198 0 
0.228237 0.281807 0 
0.228237 0.281807 0 
0.318198 0.318198 0 
0.297412 0.240191 0 
0.228237 0.281807 0 
0.318198 0.318198 0 
0.297412 0.240191 0 
0.172208 0.415746 0 
0.250007 0.374161 0 
0.18581 0.349201 0 
0.172208 0.415746 0 
0.250007 0.374161 0 
0.18581 0.349201 0 
0.250007 0.374161 0 
0.228237 0.281807 0 
0.18581 0.349201 0 
0.250007 0.374161 0 
0.228237 0.281807 0 
0.18581 0.349201 0 
0.0877906 0.441353 0 
0.172208 0.415746 0 
0.107822 0.355442 0 
0.0877906 0.441353 0 
0.172208 0.415746 0 
0.107822 0.355442 0 
0.107822 0.355442 0 
0.172208 0.415746 0 
0.18581 0.349201 0 
0.107822 0.355442 0 
0.172208 0.415746 0 
0.18581 0.349201 0 
0.0877906 0.441353 0 
0.107822 0.355442 0 
0.0381609 0.387454 0 
0.0877906 0.441353 0 
0.107822 0.355442 0 
0.0381609 0.387454 0 
-0.172208 0.415746 0 
-0.0877906 0.441353 0 
-0.108028 0.370407 0 
-0.172208 0.415746 0 
-0.0877906 0.441353 0 
-0.108028 0.370407 0 
-0.0877906 0.441353 0 
-0.0339688 0.375665 0 
-0.108028 0.370407 0 
-0.0877906 0.441353 0 
-0.0339688 0.375665 0 
-0.108028 0.370407 0 
-0.250007 0.374161 0 
-0.172208 0.415746 0 
-0.173131 0.322508 0 
-0.250007 0.374161 0 
-0.172208 0.415746 0 
-0.173131 0.322508 0 
-0.173131 0.322508 0 
-0.172208 0.415746 0 
-0.108028 0.370407 0 
-0.173131 0.322508 0 
-0.172208 0.415746 0 
-0.108028 0.370407 0 
-0.318198 0.318198 0 
-0.250007 0.374161 0 
-0.248262 0.29482 0 
-0.318198 0.318198 0 
-0.250007 0.374161 0 
-0.248262 0.29482 0 
-0.250007 0.374161 0 
-0.173131 0.322508 0 
-0.248262 0.29482 0 
-0.250007 0.374161 0 
-0.173131 0.322508 0 
-0.248262 0.29482 0 
-0.374161 0.250007 0 
-0.318198 0.318198 0 
-0.287124 0.235637 0 
-0.374161 0.250007 0 
-0.318198 0.318198 0 
-0.287124 0.235637 0 
-0.287124 0.235637 0 
-0.318198 0.318198 0 
-0.248262 0.29482 0 
-0.287124 0.235637 0 
-0.318198 0.318198 0 
-0.248262 0.29482 0 
-0.415746 0.172208 0 
-0.374161 0.250007 0 
-0.32913 0.168426 0 
-0.415746 0.172208 0 
-0.374161 0.250007 0 
-0.32913 0.168426 0 
-0.374161 0.250007 0 
-0.287124 0.235637 0 
-0.32913 0.168426 0 
-0.374161 0.250007 0 
-0.287124 0.235637 0 
-0.32913 0.168426 0 
-0.441353 0.0877906 0 
-0.415746 0.172208 0 
-0.362114 0.10176 0 
-0.441353 0.0877906 0 
-0.415746 0.172208 0 
-0.362114 0.10176 0 
-0.362114 0.10176 0 
-0.415746 0.172208 0 
-0.32913 0.168426 0 
-0.362114 0.10176 0 
-0.415746 0.172208 0 
-0.32913 0.168426 0 
-0.441353 0.0877906 0 
-0.362114 0.10176 0 
-0.389559 0.0336032 0 
-0.441353 0.0877906 0 
-0.362114 0.10176 0 
-0.389559 0.0336032 0 
-0.415746 -0.172208 0 
-0.441353 -0.0877906 0 
-0.365881 -0.111705 0 
-0.415746 -0.172208 0 
-0.441353 -0.0877906 0 
-0.365881 -0.111705 0 
-0.441353 -0.0877906 0 
-0.379429 -0.0366192 0 
-0.365881 -0.111705 0 
-0.441353 -0.0877906 0 
-0.379429 -0.0366192 0 
-0.365881 -0.111705 0 
-0.374161 -0.250007 0 
-0.415746 -0.172208 0 
-0.327578 -0.175094 0 
-0.374161 -0.250007 0 
-0.415746 -0.172208 0 
-0.327578 -0.175094 0 
-0.327578 -0.175094 0 
-0.415746 -0.172208 0 
-0.365881 -0.111705 0 
-0.327578 -0.175094 0 
-0.415746 -0.172208 0 
-0.365881 -0.111705 0 
-0.318198 -0.318198 0 
-0.374161 -0.250007 0 
-0.298599 -0.245054 0 
-0.318198 -0.318198 0 
-0.374161 -0.250007 0 
-0.298599 -0.245054 0 
-0.374161 -0.250007 0 
-0.327578 -0.175094 0 
-0.298599 -0.245054 0 
-0.374161 -0.250007 0 
-0.327578 -0.175094 0 
-0.298599 -0.245054 0 
-0.250007 -0.374161 0 
-0.318198 -0.318198 0 
-0.223685 -0.271786 0 
-0.250007 -0.374161 0 
-0.318198 -0.318198 0 
-0.223685 -0.271786 0 
-0.223685 -0.271786 0 
-0.318198 -0.318198 0 
-0.298599 -0.245054 0 
-0.223685 -0.271786 0 
-0.318198 -0.318198 0 
-0.298599 -0.245054 0 
-0.172208 -0.415746 0 
-0.250007 -0.374161 0 
-0.182092 -0.340669 0 
-0.172208 -0.415746 0 
-0.250007 -0.374161 0 
-0.182092 -0.340669 0 
-0.250007 -0.374161 0 
-0.223685 -0.271786 0 
-0.182092 -0.340669 0 
-0.250007 -0.374161 0 
-0.223685 -0.271786 0 
-0.182092 -0.340669 0 
-0.0877906 -0.441353 0 
-0.172208 -0.415746 0 
-0.112928 -0.360216 0 
-0.0877906 -0.441353 0 
-0.172208 -0.415746 0 
-0.112928 -0.360216 0 
-0.112928 -0.360216 0 
-0.172208 -0.415746 0 
-0.182092 -0.340669 0 
-0.112928 -0.360216 0 
-0.172208 -0.415746 0 
-0.182092 -0.340669 0 
-0.0877906 -0.441353 0 
-0.112928 -0.360216 0 
-0.0383965 -0.372403 0 
-0.0877906 -0.441353 0 
-0.112928 -0.360216 0 
-0.0383965 -0.372403 0 
0.172208 -0.415746 0 
0.0877906 -0.441353 0 
0.111895 -0.372646 0 
0.172208 -0.415746 0 
0.0877906 -0.441353 0 
0.111895 -0.372646 0 
0.0877906 -0.441353 0 
0.0404591 -0.377182 0 
0.111895 -0.372646 0 
0.0877906 -0.441353 0 
0.0404591 -0.377182 0 
0.111895 -0.372646 0 
0.250007 -0.374161 0 
0.172208 -0.415746 0 
0.175084 -0.3275 0 
0.250007 -0.374161 0 
0.172208 -0.415746 0 
0.175084 -0.3275 0 
0.175084 -0.3275 0 
0.172208 -0.415746 0 
0.111895 -0.372646 0 
0.175084 -0.3275 0 
0.172208 -0.415746 0 
0.111895 -0.372646 0 
0.318198 -0.318198 0 
0.250007 -0.374161 0 
0.25204 -0.306462 0 
0.318198 -0.318198 0 
0.250007 -0.374161 0 
0.25204 -0.306462 0 
0.250007 -0.374161 0 
0.175084 -0.3275 0 
0.25204 -0.306462 0 
0.250007 -0.374161 0 
0.175084 -0.3275 0 
0.25204 -0.306462 0 
0.374161 -0.250007 0 
0.318198 -0.318198 0 
0.29265 -0.244884 0 
0.374161 -0.250007 0 
0.318198 -0.318198 0 
0.29265 -0.244884 0 
0.29265 -0.244884 0 
0.318198 -0.318198 0 
0.25204 -0.306462 0 
0.29265 -0.244884 0 
0.318198 -0.318198 0 
0.25204 -0.306462 0 
0.415746 -0.172208 0 
0.374161 -0.250007 0 
0.339399 -0.183579 0 
0.415746 -0.172208 0 
0.374161 -0.250007 0 
0.339399 -0.183579 0 
0.374161 -0.250007 0 
0.29265 -0.244884 0 
0.339399 -0.183579 0 
0.374161 -0.250007 0 
0.29265 -0.244884 0 
0.339399 -0.183579 0 
0.441353 -0.0877906 0 
0.415746 -0.172208 0 
0.348465 -0.103096 0 
0.441353 -0.0877906 0 
0.415746 -0.172208 0 
0.348465 -0.103096 0 
0.348465 -0.103096 0 
0.415746 -0.172208 0 
0.339399 -0.183579 0 
0.348465 -0.103096 0 
0.415746 -0.172208 0 
0.339399 -0.183579 0 
0.441353 -0.0877906 0 
0.348465 -0.103096 0 
0.384421 -0.0378621 0 
0.441353 -0.0877906 0 
0.348465 -0.103096 0 
0.384421 -0.0378621 0 
-0.275518 -0.12132 0 
-0.327578 -0.175094 0 
-0.365881 -0.111705 0 
-0.275518 -0.12132 0 
-0.327578 -0.175094 0 
-0.365881 -0.111705 0 
-0.327578 -0.175094 0 
-0.275518 -0.12132 0 
-0.265692 -0.195501 0 
-0.327578 -0.175094 0 
-0.275518 -0.12132 0 
-0.265692 -0.195501 0 
-0.298599 -0.245054 0 
-0.327578 -0.175094 0 
-0.265692 -0.195501 0 
-0.298599 -0.245054 0 
-0.327578 -0.175094 0 
-0.265692 -0.195501 0 
0.237285 0.176133 0 
0.329177 0.174808 0 
0.296534 0.101262 0 
0.237285 0.176133 0 
0.329177 0.174808 0 
0.296534 0.101262 0 
0.329177 0.174808 0 
0.237285 0.176133 0 
0.297412 0.240191 0 
0.329177 0.174808 0 
0.237285 0.176133 0 
0.297412 0.240191 0 
0.296534 0.101262 0 
0.329177 0.174808 0 
0.369533 0.112832 0 
0.296534 0.101262 0 
0.329177 0.174808 0 
0.369533 0.112832 0 
0.0839363 -0.30145 0 
0.175084 -0.3275 0 
0.111895 -0.372646 0 
0.0839363 -0.30145 0 
0.175084 -0.3275 0 
0.111895 -0.372646 0 
0.175084 -0.3275 0 
0.0839363 -0.30145 0 
0.147007 -0.259035 0 
0.175084 -0.3275 0 
0.0839363 -0.30145 0 
0.147007 -0.259035 0 
0.216652 -0.249073 0 
0.175084 -0.3275 0 
0.147007 -0.259035 0 
0.216652 -0.249073 0 
0.175084 -0.3275 0 
0.147007 -0.259035 0 
0.175084 -0.3275 0 
0.216652 -0.249073 0 
0.25204 -0.306462 0 
0.175084 -0.3275 0 
0.216652 -0.249073 0 
0.25204 -0.306462 0 
-0.173131 0.322508 0 
-0.0730421 0.296762 0 
-0.138104 0.243902 0 
-0.173131 0.322508 0 
-0.0730421 0.296762 0 
-0.138104 0.243902 0 
-0.0730421 0.296762 0 
-0.173131 0.322508 0 
-0.108028 0.370407 0 
-0.0730421 0.296762 0 
-0.173131 0.322508 0 
-0.108028 0.370407 0 
-0.173131 0.322508 0 
-0.138104 0.243902 0 
-0.207714 0.236511 0 
-0.173131 0.322508 0 
[...]
CELL_DATA 4074
FIELD FieldData 4
ElData 1 4074 float
0
0
0
0
0
0
0
0
0
0
0
0
0
0
0
0
0
0
0
0
0
0
0
0
0
0
0
0
0
0
0
0
0
0
0
0
0
0
0
0
0
0
0
0
0
0
0
0
0
0
0
0
0
0
0
0
0
0
0
0
0
0
0
0
0
0
0
0
0
0
0
0
0
0
0
0
0
0
0
0
0
0
0
0
0
0
0
0
0
0
0
0
0
0
0
0
0
0
0
0
0
0
0
0
0
0
0
0
0
0
0
0
0
0
0
0
0
0
0
0
0
0
0
0
0
0
0
0
0
0
0
0
0
0
0
0
0
0
0
0
0
0
0
0
0
0
0
0
0
0
0
0
0
0
0
0
0
0
0
0
0
0
0
0
0
0
0
0
0
0
0
0
0
0
0
0
0
0
0
0
0
0
0
0
0
0
0
0
0
0
0
0
0
0
0
0
0
0
0
0
0
0
0
0
0
0
0
0
0
0
0
0
0
0
0
0
0
0
0
0
0
0
0
0
0
0
0
0
0
0
0
0
0
0
0
0
0
0
0
0
0
0
0
0
0
0
0
0
0
0
0
0
0
0
0
0
0
0
0
0
0
0
0
0
0
0
0
0
0
0
0
0
0
0
0
0
0
0
0
0
0
0
0
0
0
0
0
0
0
0
0
0
0
0
0
0
0
0
0
0
0
0
0
0
0
0
0
0
0
0
0
0
0
0
0
0
0
0
0
0
0
0
0
0
0
0
0
0
0
0
0
0
0
0
0
0
0
0
0
0
0
0
0
0
0
0
0
0
0
0
0
0
0
0
0
0
0
0
0
0
0
0
0
0
0
0
0
0
0
0
0
0
0
0
0
0
0
0
0
0
0
0
0
0
0
0
0
0
0
0
0
0
0
0
0
0
0
0
0
0
0
0
0
0
0
0
0
0
0
0
0
0
0
0
0
0
0
0
0
0
0
0
0
0
0
0
0
0
0
0
0
0
0
0
0
0
0
0
0
0
0
0
0
0
0
0
0
0
0
0
0
0
0
0
0
0
0
0
0
0
0
0
0
0
0
0
0
0
0
0
0
0
0
0
0
0
0
0
0
0
0
0
0
0
0
0
0
0
0
0
0
0
0
0
0
0
0
0
0
0
0
0
0
0
0
0
0
0
0
0
0
0
0
0
0
0
0
0
0
0
0
0
0
0
0
0
0
0
0
0
0
0
0
0
0
0
0
0
0
0
0
0
0
0
0
0
0
0
0
0
0
0
0
0
0
0
0
0
0
0
0
0
0
0
0
0
0
0
0
0
0
0
0
0
0
0
0
0
0
0
0
0
0
0
0
0
0
0
0
0
0
0
0
0
0
0
0
0
0
0
0
0
0
0
0
0
0
0
0
0
0
0
0
0
0
0
0
0
0
0
0
0
0
0
0
0
0
0
0
0
0
0
0
0
0
0
0
0
0
0
0
0
0
0
0
0
0
0
0
0
0
0
0
0
0
0
0
0
0
0
0
0
0
0
0
0
0
0
0
0
0
0
0
0
0
0
0
0
0
0
0
0
0
0
0
0
0
0
0
0
0
0
0
0
0
0
0
0
0
0
0
0
0
0
0
0
0
0
0
0
0
0
0
0
0
0
0
0
0
0
0
0
0
0
0
0
0
0
0
0
0
0
0
0
0
0
0
0
0
0
0
0
0
0
0
0
0
0
0
0
0
0
0
0
0
0
0
0
0
0
0
0
0
0
0
0
0
0
0
0
0
0
0
0
0
0
0
0
0
0
0
0
0
0
0
0
0
0
0
0
0
0
0
0
0
0
0
0
0
0
0
0
0
0
0
0
0
0
0
0
0
0
0
0
0
0
0
0
0
0
0
0
0
0
0
0
0
0
0
0
0
0
0
0
0
0
0
0
0
0
0
0
0
0
0
0
0
0
0
0
0
0
0
0
0
0
0
0
0
0
0
0
0
0
0
0
0
0
0
0
0
0
0
0
0
0
0
0
0
0
0
0
0
0
0
0
0
0
0
0
0
0
0
0
0
0
0
0
0
0
0
0
0
0
0
0
0
0
0
0
0
0
0
0
0
0
0
0
0
0
0
0
0
0
0
0
0
0
0
0
0
0
0
0
0
0
0
0
0
0
0
0
0
0
0
0
0
0
0
0
0
0
0
0
0
0
0
0
0
0
0
0
0
0
0
0
0
0
0
0
0
0
0
0
0
0
0
0
0
0
0
0
0
0
0
0
0
0
0
0
0
0
0
0
0
0
0
0
0
0
0
0
0
0
0
0
0
0
0
0
0
0
0
0
0
0
0
0
0
0
0
0
0
0
0
0
0
0
0
0
0
0
0
0
0
0
0
0
0
0
0
0
0
0
0
0
0
0
0
0
0
0
0
0
0
0
0
0
0
0
0
0
0
0
0
0
0
0
0
0
0
0
0
0
0
0
0
0
0
0
0
0
0
0
0
0
0
0
0
0
0
0
0
0
0
0
0
0
0
0
0
0
0
0
0
0
0
0
0
0
0
0
0
0
0
0
0
0
0
0
0
0
0
0
0
0
0
0
0
0
0
0
0
0
0
0
0
0
0
0
0
0
0
0
0
0
0
0
0
0
0
0
0
0
0
0
0
0
0
0
0
0
0
0
0
0
0
0
0
0
0
0
0
0
0
0
0
0
0
0
0
0
0
0
0
0
0
0
0
0
0
0
0
0
0
0
0
0
0
0
0
0
0
0
0
0
0
0
0
0
0
0
0
0
0
0
0
0
0
0
0
0
0
0
0
0
0
0
0
0
0
0
0
0
0
0
0
0
0
0
0
0
0
0
0
0
0
0
0
0
0
0
0
0
0
0
0
0
0
0
0
0
0
0
0
0
0
0
0
0
0
0
0
0
0
0
0
0
0
0
0
0
0
0
0
0
0
0
0
0
0
0
0
0
0
0
0
0
0
0
0
0
0
0
0
0
0
0
0
0
0
0
0
0
0
0
0
0
0
0
0
0
0
0
0
0
0
0
0
0
0
0
0
0
0
0
0
0
0
0
0
0
0
0
0
0
0
0
0
0
0
0
0
0
0
0
0
0
0
0
0
0
0
0
0
0
0
0
0
0
0
0
0
0
0
0
0
0
0
0
0
0
0
0
0
0
0
0
0
0
0
0
0
0
0
0
0
0
0
0
0
0
0
0
0
0
0
0
0
0
0
0
0
0
0
0
0
0
0
0
0
0
0
0
0
0
0
0
0
0
0
0
0
0
0
0
0
0
0
0
0
0
0
0
0
0
0
0
0
0
0
0
0
0
0
0
0
0
0
0
0
0
0
0
0
0
0
0
0
0
0
0
0
0
0
0
0
0
0
0
0
0
0
0
0
0
0
0
0
0
0
0
0
0
0
0
0
0
0
0
0
0
0
0
0
0
0
0
0
0
0
0
0
0
0
0
0
0
0
0
0
0
0
0
0
0
0
0
0
0
0
0
0
0
0
0
0
0
0
0
0
0
0
0
0
0
0
0
0
0
0
0
0
0
0
0
0
0
0
0
0
0
0
0
0
0
0
0
0
0
0
0
0
0
0
0
0
0
0
0
0
0
0
0
0
0
0
0
0
0
0
0
0
0
0
0
0
0
0
0
0
0
0
0
0
0
0
0
0
0
0
0
0
0
0
0
0
0
0
0
0
0
0
0
0
0
0
0
0
0
0
0
0
0
0
0
0
0
0
0
0
0
0
0
0
0
0
0
0
0
0
0
0
0
0
0
0
0
0
0
0
0
0
0
0
0
0
0
0
0
0
0
0
0
0
0
0
0
0
0
0
0
0
0
0
0
0
0
0
0
0
0
0
0
0
0
0
0
0
0
0
0
0
0
0
0
0
0
0
0
51502.9
22099.8
102968
19742.6
23938.7
45965.6
21283.3
42268.7
112446
83265.3
30543.5
31723.8
22745.9
34215.5
18584.1
29986.9
45470.3
20162.4
19963.9
21638.7
38742.5
14159.5
24489.2
23976.5
21061
18618.5
19862.5
18131.6
48966.2
21108
12430.6
16758.2
52631.6
18030
18569.6
12322.7
19343.3
22982
144764
31997.7
42684.9
20352.6
18680.4
139946
13976.9
41255.7
16222.9
64264.3
99614.1
19370.7
22120.8
18261.1
15171.7
19372.9
23083.8
31433.3
68248.6
18288
19201.6
13227
45339.7
23645.1
15404
70854.9
16014.6
104141
29639.8
20347.3
13926.1
19356.5
17783.1
38603.7
41415.7
45498.4
19045.9
20705.9
22022.2
19726.1
81261.5
83051.8
19108.3
123804
19619.7
134575
34237.8
19233.1
14104.9
17320.9
20228.6
129849
22266.4
15895.6
16754.5
16419.2
133430
13801.5
21315.9
31020.3
131993
19294.8
57617.5
17038.4
20146.8
13740.9
105904
19819.4
15444.6
13200.7
12511.9
13323.1
14899.1
13902
13879
13207.4
20702.8
18634.9
20122.3
49921.6
121868
36381.5
13653.5
130529
22091.4
11871.8
93026.4
95393.5
11204.7
28988.2
18170.3
57010.5
14623.8
27646.5
18497.5
13959.3
13293.1
16900.7
126063
12259.6
14648.1
13872.8
68922.6
20013.7
12760.9
17462.2
43672.8
14258.6
29958.3
19078.6
11665.8
14980.1
161147
54793.8
19482.4
12518.6
26309
17649.3
12439.6
20992.5
18287.8
19951.1
19243.6
13108.7
12562.1
14646.6
19508.1
14891.6
12768
40187.6
18999.5
24653.6
19986.6
14963.5
28828.5
18469.2
93545.6
13648.1
11501.1
15543.3
96609.8
21579.2
13489.2
39493.1
19786.6
15091.7
19998.9
20833.3
18827.6
13704.9
11250
12330.1
27900.4
15747.8
14428.9
15364.4
16261
99941.8
20162.6
116193
10499.3
11738.3
21123.2
18548.1
13676.1
113418
12315.7
14950.4
80019.3
92968.9
9565.92
9071.3
23158.6
9538.6
11375.9
14138
15961.1
64231.9
23488.9
15782.7
17603.4
14799.5
14523.8
12675.4
17873.1
74931
20254.8
12483.6
15440.5
12507
12806.6
19162.3
15564.5
78708
20533.5
18611.4
16497.8
17844.3
17745.2
37914.4
13375.7
19045.1
10908.8
11339.5
22460.6
18175.4
61687.8
11657.4
52592.3
21174.2
16248.9
30353
17857.7
12921.5
18638.5
15054.1
20544
9881.04
52285.1
38691.5
12255.3
23782.7
12803.8
10816.6
17007.9
19709.3
11440
10000.9
14202.4
16722.9
13157.1
13039.7
16419.3
15948.5
18666.1
12558.7
13629.8
19010.1
17918.5
12150.2
10736.3
13342.5
13109.1
17338.3
13073.5
12982.8
12431.9
18575.8
9869.93
20234.6
12192.3
10368.8
11872.5
8945.92
9745.58
12298.8
12043.5
12222.4
12086.3
23196.8
13661.3
80639.5
92388.6
13823.6
43793.8
11240.1
11562.5
18879.2
12795.8
13072.3
9877.68
12691.6
130138
22577.4
15461.2
48547
9364.53
11157.4
11593.9
14034.9
11651.5
14749.5
12481.4
11808.8
44106.7
9709.45
16912.4
17441.3
11898.8
12922.9
9245.58
11264.6
14559.9
10390.7
11078.7
18306.7
31893.1
16111.4
15123.8
9454.42
61967
9982.5
18061.4
13121.5
11460.8
20026
15366.8
13025.9
14234.8
10682.6
11610.4
14540.4
49488.3
126859
19376.5
36104.7
14015.7
9728.22
16768.8
10002.5
10065.5
19500.1
11168.4
9907.02
13078.9
9263.31
16002.6
13002.1
12148.6
19101.5
61678.1
14510
12229.4
10468.6
14199.3
43335.5
8933.93
10061.9
82233.2
14707.6
15427.4
16642.7
9135.21
16382.7
28634.5
18732.4
9784.56
13205.8
12401.3
20376.2
10486.4
12545.1
10276.4
8979.78
19341.9
9144.94
12495.2
9818.74
16413
12530.6
12925.7
12727.9
14048.8
8972.81
17206
12387.3
117597
9128.28
12474.7
18700.1
8867.46
8609.46
9384.07
15698.3
16994
15777
11150.1
18024.5
148339
9599.13
15402.2
12099.8
13968.8
10479.6
60186.6
9622.66
17859.4
13106
17528.5
19646.3
10493
19129.2
11536.5
21977.7
9670.51
13187.3
9383.88
13937.1
11536.8
9310.27
16921.6
8593.09
9380
10492.1
154150
11769.1
9680.77
9262.53
9849.96
11171.6
80416.8
14996.3
8474.91
23577.4
11829.7
10642
8996.51
14047.3
19796.8
14785.5
13066.4
8903.93
88741.1
24188.8
19990.9
75812.9
11166.5
16473.9
12362.8
11373.2
17378.2
131136
12659.9
13666.7
9578.21
12999.4
106421
16133.7
11298.7
10929.3
11656.8
20617
9935.74
13980.9
24960.1
28097.4
9776.44
9920.39
68469.9
140583
8998.38
145450
16369.5
10770
11227.2
11489.3
150596
20260.9
8583.98
10587.1
12180.4
8722.16
41099.4
13910.8
11880.2
12989.1
10396.8
11571.3
10084.6
16508.7
10415.6
16696.5
19200.7
44253.6
77593.5
11532.9
11086.1
13138.6
13846.2
9174.55
12218.7
13150.1
14968.1
16262.5
12741.6
12736.6
11510.2
11981.5
10314.1
10414.9
10165.3
18143.2
7909.3
16715
9259.09
11456.9
14037.5
25117.7
11134.1
15942.2
15394.4
14080.2
11188.7
7827.43
14310.2
14316.1
9407.75
15442.7
11001.5
9314.68
92706.6
8770.3
8952.12
11500
11467.7
10274.6
19770.1
12120.5
9193.9
19653.7
16592.7
8896.59
9420.37
9947.57
10902.2
10091.8
11643.1
20979.9
10119.8
14923.8
17239.3
15861.9
12069.9
14088.9
9952.19
8686.91
11194.6
20067.2
10056.9
9254.44
13925.5
9043.84
106225
154150
8079.39
9273.12
10508.2
9841.14
9920.7
13969.8
13070.9
12151.2
8690.7
31879.3
9925.79
11700.7
12438.8
10853.5
108196
21187.5
12540.8
8282.23
20530.2
9057.94
76751.2
10240.9
12063.3
17470.1
31299
12078.8
8028.35
98559.4
20321.1
11368.3
9079
10007.2
21419.7
9638.81
17916.7
9237.81
12287.5
11517.1
21047.6
17927.6
15047.6
61833.7
10635.1
9271.77
16559.7
9125.84
13274.7
10470.1
16991
20710.1
13434
12355.5
31725.5
18742.6
10789
10533.9
18420.3
17308.5
11693.7
10966.4
9516.71
11975.1
16912.4
22758.2
8320.24
11454.8
20377
12859.7
20458.4
10347.6
58404.3
15456.9
18514.6
61582.6
11616.8
10942.9
15920.8
18826.6
18199.5
13422.3
82684
20781.7
14193.8
21615.3
18287.7
17594.3
24003.2
9783.22
12346.5
12362.4
31323.9
8771.41
23144
19517.3
10889.4
13304.6
20970.6
11140.4
7256.25
13126.9
21008.4
20744.6
95808.8
20902.4
20564.3
11473.9
118985
9502.25
14254.7
25899.3
20744.7
20718
8613.53
14383.4
23354.2
12320.9
7630.3
10024
37652.5
25809.9
18794.2
93669.1
13455.4
16922.7
9841.2
18786.3
19080
12021.4
22108.2
17243.6
16823.7
10596.3
10891.2
16704
10207.8
20568.2
9509.95
11904.1
20681.6
19441.5
19467.5
12200
21604.5
13960.2
22747.1
41604
12737.7
22809.4
13439.3
13739.9
7266.77
13397.6
22390.2
20191.9
11979.2
13231.1
7400.46
11703.1
22031.4
19962.5
25136.2
7809.41
8653.75
12448.4
11625.9
25383.5
14830.5
18667.4
17828.9
19663.8
24668.2
68079.4
11375.1
23044.8
11077.7
65019.4
21106.1
14365.3
19057.1
10341.7
22929.1
11123.3
19636.2
20612.2
20861.2
11226.5
11436.2
39000.2
8821.59
24187.7
24712.3
24466.1
24900.7
14763.3
23043.6
18592.8
19655
12019.2
23062.2
24714.9
24718.9
25429
12770.4
20217.5
21912.7
19907.6
64018.3
26385.5
54435.1
24103.4
20757.8
11418.3
23842.6
24971.3
112740
19098.7
23420.9
126720
20114.2
11886.1
9154.96
20306.9
22462.4
20361.4
57583.8
21256.1
10001.8
26133.6
23221.7
48955.8
20751.9
77743.4
111590
21075.8
25810.1
20754.3
40452.1
22430.1
21703
23418.2
24494
18577
22347
22511.2
22149.9
26453.1
37401.2
23920.2
23529.5
16454.5
20599
25002.8
160829
95999.8
27204.4
145447
38117.4
28146
19881.2
29063.7
55988.3
57139.8
72940.7
20452.8
24187.1
26174
19158.6
21802.5
99717.6
30204.1
20449.6
20276.1
23758
12986.4
23373.2
23817.2
20449.8
29685.1
23307.8
34033.3
25384.2
27629.6
60673.8
22273.9
22387.6
22763.6
19999.2
175924
19831.9
44287.5
30366.9
19776
50999.7
22671.3
132852
76312
30521.2
25316
31750.9
86067.8
29685.7
69501.9
57948.4
26805.6
30914
25617
32687.6
111787
37668.6
109270
96895.5
90032.8
17924.8
21094.7
20330
28248.8
21374.4
16439.4
18361.1
21154.4
27888.4
21077.2
37558.7
21075.4
32917.3
18257
18584.9
18113.7
78751.7
20937.8
32415.8
40489.2
20237.6
28354.6
66747.5
19886.3
55460.1
20257.2
37090.6
21991.3
21604.8
19991.3
28023
35303.3
24480.6
36868.2
26058.2
26659.2
16461.6
63534.6
38253.8
18517.7
17122.1
44197
32671
18949.3
17596.2
70878.3
25712.9
33041.2
18988.3
18425.2
17812.4
40791.2
18931.3
19252.4
17789.1
18118.5
14201.8
18186.1
32974
20414.7
17795.7
17400.1
18477.6
135322
81880.8
19855.5
18916.2
17787
18105.5
17822.5
50678
18935.3
17933.6
30185.3
18901.3
18628.8
19171.9
19337.2
16123.8
20552.6
15959.9
16625.5
19848.1
17793.9
17822.5
18970.9
26253.8
19519.9
23254.2
20008.7
23928.4
23650.4
23074.9
19031.8
153638
20697.5
21151.3
21375.3
20541.8
22113
22102.8
21792.4
23131.9
20857.5
42444
21913.8
23774.5
24858.5
21961.6
20747.7
26327
26668.1
27507.9
22101
22112.3
26684.6
26022.5
11957
8833.28
9098.5
12496.8
9915.46
8496.94
17996.1
25754.3
45545
36383.3
15650.4
39368.9
12612.6
9311.49
10401.4
7364.06
10023.2
10923.4
66364
130412
150859
71778.3
13483.6
12005
9661.89
11484.4
35288.5
175672
74539.7
44257.9
25408.6
14185.8
15310.3
11274.3
10578.1
13610.1
16430.4
14092.8
40668.3
13101.8
17430.6
22460.3
19098.7
16166.9
17343
12682.7
21041.7
16989.3
51687.3
15500.2
16050.6
12251.6
13335.1
8323.85
9797.17
120906
42392
12841.4
13809.3
12201.1
20284.3
51502.9
22099.8
102968
19742.6
23938.7
45965.6
42268.7
112446
83265.3
30543.5
31723.8
22745.9
34215.5
18584.1
29986.9
45470.3
20162.4
19963.9
21638.7
38742.5
14159.5
24489.2
23976.5
21061
18618.5
19862.5
18131.6
48966.2
21108
12430.6
16758.2
52631.6
18030
18569.6
12322.7
19343.3
22982
144764
31997.7
42684.9
20352.6
18680.4
139946
13976.9
41255.7
16222.9
64264.3
99614.1
19370.7
22120.8
18261.1
15171.7
19372.9
23083.8
31433.3
68248.6
18288
19201.6
13227
45339.7
23645.1
15404
70854.9
16014.6
104141
29639.8
20347.3
13926.1
19356.5
17783.1
38603.7
41415.7
45498.4
19045.9
20705.9
22022.2
81261.5
83051.8
19108.3
123804
19619.7
134575
34237.8
19233.1
14104.9
17320.9
20228.6
129849
22266.4
15895.6
14612.8
16754.5
133430
13801.5
21315.9
31020.3
131993
19294.8
57617.5
20146.8
13740.9
105904
19819.4
15444.6
13200.7
13323.1
14899.1
13902
13879
13207.4
20702.8
18634.9
20122.3
49921.6
121868
36381.5
13653.5
130529
22091.4
11871.8
93026.4
95393.5
28988.2
18170.3
57010.5
14623.8
27646.5
18497.5
13959.3
13293.1
16900.7
126063
12259.6
14648.1
13872.8
68922.6
20013.7
12760.9
17462.2
43672.8
14258.6
29958.3
19078.6
11665.8
14980.1
161147
54793.8
19482.4
12518.6
26309
17649.3
12439.6
20992.5
18287.8
19951.1
19243.6
13108.7
12562.1
14646.6
19508.1
14891.6
12768
40187.6
18999.5
24653.6
19986.6
14963.5
28828.5
18469.2
93545.6
13648.1
11501.1
15543.3
96609.8
13431.3
21579.2
13489.2
39493.1
19786.6
15091.7
19998.9
20833.3
18827.6
13704.9
11250
12330.1
27900.4
15747.8
14428.9
15364.4
16261
99941.8
20162.6
116193
10499.3
11738.3
21123.2
18548.1
13676.1
113418
12315.7
14950.4
80019.3
92968.9
9565.92
9071.3
23158.6
9538.6
11375.9
14138
15961.1
64231.9
23488.9
15782.7
24947.6
17603.4
14799.5
12675.4
17873.1
74931
20254.8
12483.6
15440.5
12507
12806.6
19162.3
15564.5
78708
20533.5
18611.4
16497.8
17844.3
17745.2
37914.4
13375.7
19045.1
10908.8
11339.5
22460.6
18175.4
61687.8
11656.7
52592.3
21174.2
16248.9
30353
17857.7
12921.5
18638.5
15054.1
20544
9881.04
52285.1
38691.5
12255.3
23782.7
12803.8
15310.3
10823.9
17007.9
19709.3
11440
10001.6
14202.4
16722.9
8833.28
13157.1
13039.7
16419.3
15948.5
18666.1
12558.7
13346.9
13629.8
19010.1
17918.5
9098.5
12150.2
10736.3
13342.5
13109.1
17338.3
13073.5
12982.8
12431.9
18575.8
9869.93
20234.6
12192.3
10368.9
8945.92
9745.58
12298.8
12222.4
12086.3
23196.8
13661.3
80639.5
92388.6
13823.6
43793.8
11239.9
11562.6
18879.2
12795.8
13072.3
9876.72
12691.6
130138
22577.4
15461.2
48547
9364.09
11156.3
11593.9
14034.9
11656.4
14749.5
11808.7
12480.5
44106.7
9708.34
16912.4
11898.5
17441.3
12922.9
9245.58
11268.8
14559.9
10390.7
11078.7
18306.7
31893.1
16111.4
9453.67
61967
9982.23
18061.4
13121.5
11460.8
20026
15366.8
13025.9
14234.8
10682.6
11610.4
14540.4
49488.3
126859
19376.5
36104.7
9727.57
14015.7
16768.8
10002.3
10065.5
19500.1
11168.4
9905.98
13078.9
9263.31
16002.5
13002.1
12148.6
19101.5
61678.1
14510
12229.4
10468.6
14199.3
43335.5
8933.93
10062.5
82233.2
14707.6
15427.4
16642.7
9135.21
16382.7
28634.5
18732.4
9784.56
13205.8
12403.2
20376.2
10486.5
16430.4
12545.1
10276.4
8979.78
19341.9
9144.94
12495.2
9817.67
16413
12530.6
12925.7
12727.9
14048.8
8972.81
17206
12387.3
117597
9128.51
12474.7
18700.1
8867.46
8609.57
9384.07
15698.3
16994
15777
11149
18024.5
148339
9599.13
15402.2
12099.8
13968.8
10479.2
60186.6
9622.66
17859.4
13106
17528.5
19646.3
10493
19129.2
11536.2
21977.7
9670.51
13187.3
9383.88
13935.4
11536.8
9310.27
16921.6
8593.74
9380
10493.9
154150
11769.1
9680.77
9262.53
9849.96
11171.6
80416.8
14996.3
8474.91
23577.4
11829.7
10642
8996.51
14047.3
19796.8
14785.5
13066.4
8903.93
88741.1
24188.8
19990.9
75812.9
11166.5
16473.9
12365.2
11373.2
17378.2
131136
12659.9
13666.7
9578.21
12997.9
106421
16133.7
11299.6
10929.3
11656.8
9934.75
20617
13980.9
24960.1
28097.4
9776.44
9920.38
68469.9
140583
8998.38
145450
16369.1
10770
11227.2
11484.3
150596
20260.9
8583.98
10586
12180.4
8722.16
41099.4
13910.8
11880.2
12989.1
10396.8
11571.4
10084.6
16508.7
10412.4
16696.5
19200.7
44253.6
77593.5
11532.9
11086.1
13138.6
13846.2
9174.55
12218.7
13150.1
14968.1
16262.5
12741.6
12736.6
11510.2
11981.5
10314.1
10414.9
10165.9
18143.2
7909.3
16715.4
9259.09
11455.8
14039.7
25117.7
11134.1
15942
15394.4
14080.2
11188.2
7827.43
14310.2
14316.1
9407.75
15442.7
11001.5
9314.68
92706.6
8770.3
8952.12
11500
11470.9
10274.6
19792
12120.5
9193.9
19653.7
16592.7
8896.43
9420.37
9947.57
10902.2
10093.7
11643.1
20979.9
10119.8
14923.8
17258.3
15861.9
12069.9
14088.9
9952.04
8686.91
11194.6
20067.2
10056.9
9254.44
13925.5
9043.84
106225
154150
8079.39
9273.12
10508.9
9841.14
9920.7
13969.8
13070.9
12151.2
8690.7
31879.3
9925.79
11700.5
12438.8
10853.5
108196
21187.5
12540.8
8282.23
20547.6
9057.94
76751.2
10240.9
12063.3
17470.1
31299
12078.8
8028.35
98559.4
9080.21
11368.3
20331.5
10008.3
21419.7
9639.21
9237.81
17946.4
12286.6
11517.1
21062.6
15047.6
17954
61833.7
10635.3
9271.69
16559.7
9127.06
13274.7
10470.1
16991
13434
20749.1
12355.5
31725.5
18750.3
10789
10533.9
18396.6
17321.6
11693.7
10966.6
9516.71
11975.1
16912.4
22774.5
8320.24
11454.8
20377
12859.7
10347.4
20482.6
58404.3
15456.9
18514.6
61582.6
11616.8
10942.9
15920.8
18826.6
18212.8
13422.3
82684
20774.9
14193.8
21606.5
18287.7
17604.3
24003.2
9783.22
12346.5
12362.4
23122.2
31323.9
8771.41
19534.8
10889.4
13304.6
20982.6
11140.4
7256.25
13126.9
14741.1
21040
20734.9
95808.8
20902.4
20564.3
11473.9
118985
9502.83
14254.7
25925
20732.9
20718
8613.53
14383.4
23354.2
12320.9
7630.3
10024
37652.5
25809.9
18783.9
93669.1
13455.4
16937.8
9841.2
18786.3
7364.06
19092.9
12021.4
22097.9
17243.6
16823.7
10596.3
16697.2
10891.2
10207.8
20534.3
9509.95
11904.1
20651.2
19454.2
19460.5
12200
21604.5
13960.2
22752.8
41604
12737.7
22791.3
13439.3
13739.9
7266.77
13397.6
22384.7
20197
11979.2
13231.1
7400.46
11703.1
22012.8
25102.4
19973.4
7809.41
8653.75
12448.4
11625.9
25360.3
14830.5
18669.7
17833.5
24637.8
19659.9
68079.4
11375.1
23044.8
11077.7
65019.4
21106.1
14365.3
19070.2
22894.6
10341.7
11123.3
19619.7
20629.8
20840.8
11226.5
11436.2
24150.1
39000.2
8821.59
24673.9
24477.4
24900.7
14763.3
23054.3
18601.5
19655
12019.2
23031.2
24698.2
24704.8
25429.6
12769.2
20217.5
21902.5
19918.5
26345.8
64018.3
54435.1
24087.8
20757.8
11418.3
23865
24971.3
112740
19098.7
23420.9
126720
11886.1
20138.7
9154.96
20306.9
20342.3
22462.4
57583.8
21273.3
10001.8
23202.1
26133.6
48955.8
20730.1
77743.4
111590
21075.8
25796
20731.1
40452.1
22466
21703
23447.7
24494
18577
22493.3
22347
22149.9
26453.1
37401.2
23485.4
23917.3
16454.5
20599
25002.8
160829
95999.8
27230.6
145447
38117.4
28146
19843.8
29086.8
55988.3
57139.8
72940.7
20452.8
24187.1
26174
19147.7
21761.6
99717.6
30204.1
20465.3
20276.1
12986.4
23790
23396.2
23817.2
20443.6
29685.1
23313.6
34033.3
25384.2
27629.6
60673.8
22261.3
22387.6
22763.6
19977
175924
19831.9
44287.5
30366.9
19754.1
50999.7
22706.5
132852
76312
30521.2
25316
31750.9
86067.8
29686.9
69501.9
57948.4
26805.6
30914
25617
32687.6
111787
37668.6
109270
96895.5
90032.8
17924.8
21094.7
20330
28248.8
21374.4
16439.4
18361.1
21154.4
27888.4
21077.2
37558.7
21075.4
32917.3
18257
18584.9
18113.7
78751.7
20937.8
32415.8
40489.2
20237.6
66747.5
28397.3
19886.3
55460.1
20257.2
37090.6
21991.3
21604.8
19991.3
28023
35303.3
24480.6
36868.2
26058.2
26659.2
16461.6
63534.6
38255.4
18517.7
17122.1
44197
32671
18949.3
17600.6
70878.3
25712.9
33041.2
18993
18427.5
17804.1
40791.2
18931.3
19257.1
17805.8
14186.1
18152.6
18206.2
32974
20414.7
17822.5
17408.2
18498.1
135322
81880.8
19855.5
18943.4
17772
18091.1
17789.1
50678
17923.8
18948.8
30185.3
18875.9
18628.8
19180.9
19337.2
16093.6
20547.5
15950.9
16634.7
19848.1
17822.5
17817.9
18953.1
26253.8
19483.2
23248.4
20020.1
23925.4
23650.4
23074.9
19031.8
153638
20717.4
21169.2
21392.7
20510.9
22113
22097.3
21800.6
23131.9
20857.5
42444
21955
23812.6
24905.2
21930
20731
26348
26625.4
27495.1
22085.3
22087.8
26674.6
25997.5
21283.3
13139.9
19726.1
13437.2
8496.94
9915.46
25754.3
17996.1
36383.3
45545
39368.9
15650.4
12612.6
9311.49
9483.63
17038.4
10923.4
10023.2
130412
66364
150859
71778.3
13483.6
12005
9661.89
11484.4
35288.5
175672
74539.7
25408.6
44257.9
10512.1
9573.72
10578.2
11274.2
12043.5
13935.6
14092.8
40668.3
13101.8