# vtk DataFile Version 3.0
vtk output
ASCII
DATASET UNSTRUCTURED_GRID
POINTS 8576 float
0.114043	0.0943971	0.1	
0.0858783	0.0607949	0.1	
0.0741079	0.088115	0.1	
0.0632975	0.0980676	0	
0.204676	0.0233192	0.1	
0.153315	0.00689278	0.1	
0.160735	0.0621263	0.1	
0.132963	0.044259	0	
-0.0269211	0.0671862	0.1	
0.00442099	0.0829354	0.1	
0	0.045	0.1	
0.0186333	0.101613	0.0479424	
-0.075941	0.18593	0.1	
-0.0880857	0.11829	0	
-0.0278782	0.153479	0.1	
-0.0791922	0.124893	0.1	
-0.0880857	0.11829	0	
-0.0254114	0.106009	0.1	
-0.0278782	0.153479	0.1	
-0.0791922	0.124893	0.1	
0.0741079	0.088115	0.1	
0.0632975	0.0980676	0	
0.0858783	0.0607949	0.1	
0.0396544	0.04868	0.0438187	
0.194544	-0.0323862	0.1	
0.136366	-0.0453365	0.1	
0.153315	0.00689278	0.1	
0.201967	-0.00950962	0	
0.114043	0.0943971	0.1	
0.160735	0.0621263	0.1	
0.114815	0.0394603	0.1	
0.0969794	0.021072	0.0441191	
-0.0269211	0.0671862	0.1	
0	0.045	0.1	
-0.0318198	0.0318198	0.1	
-0.0436673	0.0180876	0.0496986	
0.104819	-0.00331638	0.1	
0.136366	-0.0453365	0.1	
0.0986719	-0.0360043	0.1	
0.0969794	0.021072	0.0441191	
0.0207402	-0.174187	0.1	
-0.0142517	-0.205249	0.1	
-0.0203113	-0.154489	0.1	
0.0279075	-0.16395	0	
0.114043	0.0943971	0.1	
0.0741079	0.088115	0.1	
0.0691478	0.134694	0.1	
0.0632975	0.0980676	0	
-0.0607822	-0.132192	0.1	
-0.109965	-0.155382	0.1	
-0.0529805	-0.19738	0	
-0.0566812	-0.183891	0.1	
-0.0269211	0.0671862	0.1	
-0.0182151	0.0644617	0	
0	0.045	0.1	
-0.0436673	0.0180876	0.0496986	
0.194544	-0.0323862	0.1	
0.183564	-0.0903245	0.1	
0.136366	-0.0453365	0.1	
0.190166	-0.0983881	0	
-0.0607822	-0.132192	0.1	
-0.0529805	-0.19738	0	
-0.0203113	-0.154489	0.1	
-0.0566812	-0.183891	0.1	
0.0986719	-0.0360043	0.1	
0.136366	-0.0453365	0.1	
0.0868431	-0.0680824	0.1	
0.12107	-0.0431928	0	
-0.12308	-0.143942	0	
-0.108753	-0.0943056	0.1	
-0.109965	-0.155382	0.1	
-0.0607822	-0.132192	0.1	
-0.203899	-0.0323666	0.1	
-0.181323	-0.0027565	0	
-0.253293	0.00301969	0.1	
-0.19804	0.0242816	0.1	
-0.0278782	0.153479	0.1	
-0.0758641	0.204419	0	
-0.075941	0.18593	0.1	
-0.0232097	0.208019	0.1	
-0.140177	0.0445127	0.1	
-0.13855	0.104902	0.1	
-0.0949426	0.0752698	0.1	
-0.0733988	0.0716859	0.0422482	
-0.108753	-0.0943056	0.1	
-0.0607822	-0.132192	0.1	
-0.12308	-0.143942	0	
-0.0647576	-0.0686517	0.0541732	
-0.0254114	0.106009	0.1	
-0.0791922	0.124893	0.1	
-0.0880857	0.11829	0	
-0.0733988	0.0716859	0.0422482	
0.114043	0.0943971	0.1	
0.0858783	0.0607949	0.1	
0.0632975	0.0980676	0	
0.0969794	0.021072	0.0441191	
-0.247343	0.061739	0.1	
-0.242461	0.118505	0.1	
-0.296313	0.0995627	0	
-0.29431	0.0991694	0.1	
-0.242461	0.118505	0.1	
-0.191044	0.0809942	0.1	
-0.169647	0.0846842	0	
-0.1869	0.140647	0.1	
0.0783782	0.19473	0.1	
0.0236281	0.174203	0.1	
0.0312955	0.232251	0.1	
0.0750467	0.185499	0	
-0.0791922	0.124893	0.1	
-0.075941	0.18593	0.1	
-0.0880857	0.11829	0	
-0.131315	0.16418	0.1	
0.0139627	0.124614	0.1	
-0.0278782	0.153479	0.1	
0.0236281	0.174203	0.1	
0.0186333	0.101613	0.0479424	
0.130886	-0.100339	0.1	
0.136366	-0.0453365	0.1	
0.183564	-0.0903245	0.1	
0.190166	-0.0983881	0	
0.0691478	0.134694	0.1	
0.0236281	0.174203	0.1	
0.0750467	0.185499	0	
0.0186333	0.101613	0.0479424	
0.240073	-0.0744514	0.1	
0.225509	-0.136032	0.1	
0.26859	-0.0619166	0	
0.287371	-0.120299	0.1	
0.0864603	-0.112342	0.1	
0.0868431	-0.0680824	0.1	
0.130886	-0.100339	0.1	
0.062652	-0.118801	0.041886	
-0.110394	-0.216726	0.1	
-0.12308	-0.143942	0	
-0.16441	-0.183508	0.1	
-0.109965	-0.155382	0.1	
0.251733	-0.014256	0.1	
0.240073	-0.0744514	0.1	
0.194544	-0.0323862	0.1	
0.201967	-0.00950962	0	
-0.160221	-0.122206	0.1	
-0.108753	-0.0943056	0.1	
-0.12308	-0.143942	0	
-0.142279	-0.0393203	0.0487826	
-0.248332	0.050693	0	
-0.191044	0.0809942	0.1	
-0.242461	0.118505	0.1	
-0.247343	0.061739	0.1	
0.204676	0.0233192	0.1	
0.255462	0.038247	0.1	
0.251733	-0.014256	0.1	
0.201967	-0.00950962	0	
-0.0201457	0.00856081	0.1	
0	0.045	0.1	
0.00677135	0.0163475	0.1	
-0.0436673	0.0180876	0.0496986	
-0.0269211	0.0671862	0.1	
0	0.045	0.1	
-0.0182151	0.0644617	0	
0.0186333	0.101613	0.0479424	
-0.203899	-0.0323666	0.1	
-0.19804	0.0242816	0.1	
-0.153293	-0.011499	0.1	
-0.142279	-0.0393203	0.0487826	
-0.00311199	0.32667	0.1	
-0.0730421	0.296762	0	
-0.0135764	0.270208	0.1	
-0.0572929	0.316053	0.1	
0.114043	0.0943971	0.1	
0.0691478	0.134694	0.1	
0.124146	0.156872	0.1	
0.144601	0.131477	0	
-0.00500969	-0.0120945	0.1	
-0.0318198	-0.0318198	0.1	
-0.0201457	0.00856081	0.1	
-0.0436673	0.0180876	0.0496986	
0.12107	-0.0431928	0	
0.130886	-0.100339	0.1	
0.0868431	-0.0680824	0.1	
0.062652	-0.118801	0.041886	
-0.157075	-0.0653284	0.1	
-0.108753	-0.0943056	0.1	
-0.160221	-0.122206	0.1	
-0.142279	-0.0393203	0.0487826	
-0.155635	0.172227	0	
-0.237687	0.180874	0.1	
-0.1869	0.140647	0.1	
-0.175847	0.204716	0.1	
-0.0254114	0.106009	0.1	
-0.0583523	0.0875158	0.1	
-0.0791922	0.124893	0.1	
-0.0733988	0.0716859	0.0422482	
-0.0318198	-0.0318198	0.1	
-0.0712343	-0.0265969	0.1	
-0.045	0	0.1	
-0.088703	-0.0138649	0.0491848	
0.0691478	0.134694	0.1	
0.0236281	0.174203	0.1	
0.0783782	0.19473	0.1	
0.0750467	0.185499	0	
-0.0232097	0.208019	0.1	
-0.0278782	0.153479	0.1	
-0.00652201	0.151895	0	
0.0236281	0.174203	0.1	
0.0312955	0.232251	0.1	
0.0906227	0.254757	0.1	
0.0783782	0.19473	0.1	
0.0750467	0.185499	0	
-0.0254114	0.106009	0.1	
-0.00652201	0.151895	0	
-0.0880857	0.11829	0	
-0.0278782	0.153479	0.1	
0.124146	0.156872	0.1	
0.0691478	0.134694	0.1	
0.0783782	0.19473	0.1	
0.0750467	0.185499	0	
0.130886	-0.100339	0.1	
0.0868431	-0.0680824	0.1	
0.136366	-0.0453365	0.1	
0.12107	-0.0431928	0	
0.0986719	-0.0360043	0.1	
0.12107	-0.0431928	0	
0.0868431	-0.0680824	0.1	
0.0512771	-0.0404658	0.045086	
0.0858783	0.0607949	0.1	
0.114043	0.0943971	0.1	
0.114815	0.0394603	0.1	
0.0969794	0.021072	0.0441191	
-0.110394	-0.216726	0.1	
-0.0529805	-0.19738	0	
-0.109965	-0.155382	0.1	
-0.0566812	-0.183891	0.1	
-0.1869	0.140647	0.1	
-0.13855	0.104902	0.1	
-0.155635	0.172227	0	
-0.131315	0.16418	0.1	
-0.0880857	0.11829	0	
-0.0758641	0.204419	0	
-0.075941	0.18593	0.1	
-0.0278782	0.153479	0.1	
0.153315	0.00689278	0.1	
0.114815	0.0394603	0.1	
0.160735	0.0621263	0.1	
0.0969794	0.021072	0.0441191	
0.124146	0.156872	0.1	
0.0783782	0.19473	0.1	
0.129359	0.208003	0.1	
0.0750467	0.185499	0	
0.204676	0.0233192	0.1	
0.153315	0.00689278	0.1	
0.132963	0.044259	0	
0.201967	-0.00950962	0	
-0.104461	0.000932435	0.1	
-0.140177	0.0445127	0.1	
-0.0944203	0.0353385	0.1	
-0.088703	-0.0138649	0.0491848	
-0.0254114	0.106009	0.1	
-0.0733988	0.0716859	0.0422482	
-0.00652201	0.151895	0	
0.0186333	0.101613	0.0479424	
-0.0269211	0.0671862	0.1	
-0.0318198	0.0318198	0.1	
-0.0611924	0.0535755	0.1	
-0.0436673	0.0180876	0.0496986	
-0.0142517	-0.205249	0.1	
-0.0203113	-0.154489	0.1	
-0.0529805	-0.19738	0	
-0.0566812	-0.183891	0.1	
0.114043	0.0943971	0.1	
0.168985	0.119579	0.1	
0.160735	0.0621263	0.1	
0.144601	0.131477	0	
-0.0142517	-0.205249	0.1	
-0.0529805	-0.19738	0	
-0.0203113	-0.154489	0.1	
0.0279075	-0.16395	0	
0.240073	-0.0744514	0.1	
0.183564	-0.0903245	0.1	
0.194544	-0.0323862	0.1	
0.190166	-0.0983881	0	
-0.0880857	0.11829	0	
-0.13855	0.104902	0.1	
-0.0791922	0.124893	0.1	
-0.131315	0.16418	0.1	
-0.0278782	0.153479	0.1	
-0.0254114	0.106009	0.1	
-0.00652201	0.151895	0	
0.0186333	0.101613	0.0479424	
0.0207402	-0.174187	0.1	
0.0587245	-0.143156	0.1	
0.0725059	-0.197526	0.1	
0.062652	-0.118801	0.041886	
0.104819	-0.00331638	0.1	
0.153315	0.00689278	0.1	
0.136366	-0.0453365	0.1	
0.0969794	0.021072	0.0441191	
-0.0674604	0.249371	0.1	
-0.0135764	0.270208	0.1	
-0.0232097	0.208019	0.1	
0.00604814	0.236488	0	
0.129359	0.208003	0.1	
0.0783782	0.19473	0.1	
0.0906227	0.254757	0.1	
0.0750467	0.185499	0	
0.124146	0.156872	0.1	
0.129359	0.208003	0.1	
0.179715	0.179275	0.1	
0.154944	0.223937	0	
-0.258057	-0.0572365	0.1	
-0.256491	-0.0362829	0	
-0.203899	-0.0323666	0.1	
-0.209136	-0.0909343	0.1	
0	-0.045	0.1	
0.0401753	-0.0586342	0.1	
0.00728726	-0.0832273	0.1	
-0.0200153	-0.0483211	0.048598	
-0.0583523	0.0875158	0.1	
-0.0254114	0.106009	0.1	
-0.0269211	0.0671862	0.1	
-0.0733988	0.0716859	0.0422482	
-0.140177	0.0445127	0.1	
-0.191044	0.0809942	0.1	
-0.169647	0.0846842	0	
-0.19804	0.0242816	0.1	
0.0741079	0.088115	0.1	
0.0858783	0.0607949	0.1	
0.0550025	0.059172	0.1	
0.0396544	0.04868	0.0438187	
-0.248332	0.050693	0	
-0.191044	0.0809942	0.1	
-0.247343	0.061739	0.1	
-0.19804	0.0242816	0.1	
-0.0538392	-0.0535857	0.1	
-0.0712343	-0.0265969	0.1	
-0.0318198	-0.0318198	0.1	
-0.0647576	-0.0686517	0.0541732	
-0.0415815	-0.110392	0	
-0.0607822	-0.132192	0.1	
-0.0203113	-0.154489	0.1	
0.00260765	-0.105267	0.0427151	
-0.075941	0.18593	0.1	
-0.121547	0.224354	0.1	
-0.0758641	0.204419	0	
-0.131315	0.16418	0.1	
-0.109965	-0.155382	0.1	
-0.0529805	-0.19738	0	
-0.12308	-0.143942	0	
-0.0607822	-0.132192	0.1	
0.0279075	-0.16395	0	
0.0725059	-0.197526	0.1	
0.0207402	-0.174187	0.1	
0.0204871	-0.24099	0.1	
-0.296313	0.0995627	0	
-0.247343	0.061739	0.1	
-0.29431	0.0991694	0.1	
-0.304909	0.0444641	0.1	
0	0.045	0.1	
0.0318198	0.0318198	0.1	
0.00677135	0.0163475	0.1	
0.0396544	0.04868	0.0438187	
0.153315	0.00689278	0.1	
0.204676	0.0233192	0.1	
0.194544	-0.0323862	0.1	
0.201967	-0.00950962	0	
-0.0203113	-0.154489	0.1	
-0.0415815	-0.110392	0	
-0.0529805	-0.19738	0	
-0.0607822	-0.132192	0.1	
-0.121547	0.224354	0.1	
-0.138104	0.243902	0	
-0.116127	0.293072	0.1	
-0.0674604	0.249371	0.1	
0.12107	-0.0431928	0	
0.153315	0.00689278	0.1	
0.136366	-0.0453365	0.1	
0.201967	-0.00950962	0	
-0.0201457	0.00856081	0.1	
-0.0318198	0.0318198	0.1	
0	0.045	0.1	
-0.0436673	0.0180876	0.0496986	
-0.0659287	-0.28985	0	
-0.111587	-0.287654	0.1	
-0.0496677	-0.250381	0.1	
-0.110394	-0.216726	0.1	
0.0858783	0.0607949	0.1	
0.0396544	0.04868	0.0438187	
0.0632975	0.0980676	0	
0.0969794	0.021072	0.0441191	
-0.0269211	0.0671862	0.1	
-0.0733988	0.0716859	0.0422482	
-0.0254114	0.106009	0.1	
0.0186333	0.101613	0.0479424	
-0.0201457	0.00856081	0.1	
-0.0318198	-0.0318198	0.1	
-0.045	0	0.1	
-0.0436673	0.0180876	0.0496986	
-0.108753	-0.0943056	0.1	
-0.160221	-0.122206	0.1	
-0.12308	-0.143942	0	
[...]
CELL_DATA 2144
POINT_DATA 8576
SCALARS StressX float 
LOOKUP_TABLE default
0.0298583 0.0298583 0.0298583 0.0298583 0.0294792 0.0294792 0.0294792 0.0294792 0.0351154 0.0351154 0.0351154 0.0351154 0.0319795 0.0319795 0.0319795 0.0319795 0.0325356 0.0325356 0.0325356 0.0325356 0.0235582 0.0235582 0.0235582 0.0235582 0.0341704 0.0341704 0.0341704 0.0341704 0.0261481 0.0261481 0.0261481 0.0261481 0.0346895 0.0346895 0.0346895 0.0346895 0.0304809 0.0304809 0.0304809 0.0304809 0.0290297 0.0290297 0.0290297 0.0290297 0.0305075 0.0305075 0.0305075 0.0305075 0.029995 0.029995 0.029995 0.029995 0.027628 0.027628 0.027628 0.027628 0.0333472 0.0333472 0.0333472 0.0333472 0.0296315 0.0296315 0.0296315 0.0296315 0.0293192 0.0293192 0.0293192 0.0293192 0.030291 0.030291 0.030291 0.030291 0.00403721 0.00403721 0.00403721 0.00403721 0.0328019 0.0328019 0.0328019 0.0328019 0.0218418 0.0218418 0.0218418 0.0218418 0.0221147 0.0221147 0.0221147 0.0221147 0.0331721 0.0331721 0.0331721 0.0331721 0.0194339 0.0194339 0.0194339 0.0194339 0.013173 0.013173 0.013173 0.013173 0.0247598 0.0247598 0.0247598 0.0247598 0.0303987 0.0303987 0.0303987 0.0303987 0.026728 0.026728 0.026728 0.026728 0.0288201 0.0288201 0.0288201 0.0288201 0.0323984 0.0323984 0.0323984 0.0323984 0.019233 0.019233 0.019233 0.019233 -0.00636523 -0.00636523 -0.00636523 -0.00636523 0.0298084 0.0298084 0.0298084 0.0298084 0.0177292 0.0177292 0.0177292 0.0177292 -0.00344549 -0.00344549 -0.00344549 -0.00344549 0.0123223 0.0123223 0.0123223 0.0123223 0.0158812 0.0158812 0.0158812 0.0158812 0.00637574 0.00637574 0.00637574 0.00637574 0.0354122 0.0354122 0.0354122 0.0354122 0.0261019 0.0261019 0.0261019 0.0261019 0.00214617 0.00214617 0.00214617 0.00214617 0.0187376 0.0187376 0.0187376 0.0187376 0.0285067 0.0285067 0.0285067 0.0285067 0.0339929 0.0339929 0.0339929 0.0339929 0.0223374 0.0223374 0.0223374 0.0223374 0.0209519 0.0209519 0.0209519 0.0209519 0.0128669 0.0128669 0.0128669 0.0128669 0.0338999 0.0338999 0.0338999 0.0338999 0.036428 0.036428 0.036428 0.036428 0.028896 0.028896 0.028896 0.028896 0.0275014 0.0275014 0.0275014 0.0275014 0.0220239 0.0220239 0.0220239 0.0220239 0.000578826 0.000578826 0.000578826 0.000578826 0.0228063 0.0228063 0.0228063 0.0228063 0.0295888 0.0295888 0.0295888 0.0295888 0.0113941 0.0113941 0.0113941 0.0113941 0.031414 0.031414 0.031414 0.031414 0.0260051 0.0260051 0.0260051 0.0260051 0.015175 0.015175 0.015175 0.015175 0.0284109 0.0284109 0.0284109 0.0284109 0.0234181 0.0234181 0.0234181 0.0234181 0.0195573 0.0195573 0.0195573 0.0195573 0.0210608 0.0210608 0.0210608 0.0210608 0.0265606 0.0265606 0.0265606 0.0265606 0.013467 0.013467 0.013467 0.013467 0.0311062 0.0311062 0.0311062 0.0311062 0.0291698 0.0291698 0.0291698 0.0291698 0.02001 0.02001 0.02001 0.02001 0.000509826 0.000509826 0.000509826 0.000509826 0.0170246 0.0170246 0.0170246 0.0170246 0.0237555 0.0237555 0.0237555 0.0237555 0.0173245 0.0173245 0.0173245 0.0173245 0.0250014 0.0250014 0.0250014 0.0250014 0.0239106 0.0239106 0.0239106 0.0239106 0.029769 0.029769 0.029769 0.029769 0.022588 0.022588 0.022588 0.022588 0.0104781 0.0104781 0.0104781 0.0104781 0.0189495 0.0189495 0.0189495 0.0189495 0.0337822 0.0337822 0.0337822 0.0337822 0.0344364 0.0344364 0.0344364 0.0344364 0.0211675 0.0211675 0.0211675 0.0211675 0.0296376 0.0296376 0.0296376 0.0296376 0.0105538 0.0105538 0.0105538 0.0105538 0.036061 0.036061 0.036061 0.036061 0.0191788 0.0191788 0.0191788 0.0191788 0.0243788 0.0243788 0.0243788 0.0243788 0.0190115 0.0190115 0.0190115 0.0190115 0.0248616 0.0248616 0.0248616 0.0248616 -0.00683348 -0.00683348 -0.00683348 -0.00683348 0.034756 0.034756 0.034756 0.034756 0.0313038 0.0313038 0.0313038 0.0313038 0.0268056 0.0268056 0.0268056 0.0268056 0.0255464 0.0255464 0.0255464 0.0255464 -0.00438066 -0.00438066 -0.00438066 -0.00438066 0.0336532 0.0336532 0.0336532 0.0336532 0.0223938 0.0223938 0.0223938 0.0223938 0.0142662 0.0142662 0.0142662 0.0142662 0.0106358 0.0106358 0.0106358 0.0106358 0.0312355 0.0312355 0.0312355 0.0312355 0.0132061 0.0132061 0.0132061 0.0132061 0.0293076 0.0293076 0.0293076 0.0293076 0.0190887 0.0190887 0.0190887 0.0190887 0.025959 0.025959 0.025959 0.025959 -0.0775076 -0.0775076 -0.0775076 -0.0775076 0.0257963 0.0257963 0.0257963 0.0257963 0.0121716 0.0121716 0.0121716 0.0121716 -0.00162594 -0.00162594 -0.00162594 -0.00162594 0.00904864 0.00904864 0.00904864 0.00904864 -0.000395944 -0.000395944 -0.000395944 -0.000395944 0.0289436 0.0289436 0.0289436 0.0289436 0.00375577 0.00375577 0.00375577 0.00375577 0.00484136 0.00484136 0.00484136 0.00484136 -0.00426916 -0.00426916 -0.00426916 -0.00426916 0.0112125 0.0112125 0.0112125 0.0112125 -0.00330876 -0.00330876 -0.00330876 -0.00330876 0.0136828 0.0136828 0.0136828 0.0136828 -0.0053739 -0.0053739 -0.0053739 -0.0053739 0.0260202 0.0260202 0.0260202 0.0260202 0.0331962 0.0331962 0.0331962 0.0331962 0.0217818 0.0217818 0.0217818 0.0217818 0.000356088 0.000356088 0.000356088 0.000356088 0.0297319 0.0297319 0.0297319 0.0297319 0.0212773 0.0212773 0.0212773 0.0212773 0.0102929 0.0102929 0.0102929 0.0102929 0.0327021 0.0327021 0.0327021 0.0327021 0.0291231 0.0291231 0.0291231 0.0291231 0.0208425 0.0208425 0.0208425 0.0208425 0.0253755 0.0253755 0.0253755 0.0253755 0.00958036 0.00958036 0.00958036 0.00958036 0.0242733 0.0242733 0.0242733 0.0242733 0.00291601 0.00291601 0.00291601 0.00291601 0.0305579 0.0305579 0.0305579 0.0305579 0.0135327 0.0135327 0.0135327 0.0135327 -0.0162337 -0.0162337 -0.0162337 -0.0162337 0.0163784 0.0163784 0.0163784 0.0163784 0.0103837 0.0103837 0.0103837 0.0103837 0.0345619 0.0345619 0.0345619 0.0345619 -0.0773258 -0.0773258 -0.0773258 -0.0773258 0.000569229 0.000569229 0.000569229 0.000569229 0.0177151 0.0177151 0.0177151 0.0177151 0.0310482 0.0310482 0.0310482 0.0310482 0.0301699 0.0301699 0.0301699 0.0301699 0.00517765 0.00517765 0.00517765 0.00517765 -0.0621753 -0.0621753 -0.0621753 -0.0621753 0.0254977 0.0254977 0.0254977 0.0254977 0.0135546 0.0135546 0.0135546 0.0135546 0.0238881 0.0238881 0.0238881 0.0238881 0.0161391 0.0161391 0.0161391 0.0161391 -0.081511 -0.081511 -0.081511 -0.081511 -0.00239496 -0.00239496 -0.00239496 -0.00239496 0.0338511 0.0338511 0.0338511 0.0338511 0.0288813 0.0288813 0.0288813 0.0288813 0.0299121 0.0299121 0.0299121 0.0299121 0.00069975 0.00069975 0.00069975 0.00069975 0.0154978 0.0154978 0.0154978 0.0154978 0.0260536 0.0260536 0.0260536 0.0260536 0.0236872 0.0236872 0.0236872 0.0236872 0.0266034 0.0266034 0.0266034 0.0266034 0.0142687 0.0142687 0.0142687 0.0142687 0.0229266 0.0229266 0.0229266 0.0229266 0.00180154 0.00180154 0.00180154 0.00180154 -0.00187981 -0.00187981 -0.00187981 -0.00187981 0.011486 0.011486 0.011486 0.011486 0.000355443 0.000355443 0.000355443 0.000355443 0.0155082 0.0155082 0.0155082 0.0155082 -0.00976257 -0.00976257 -0.00976257 -0.00976257 0.00868039 0.00868039 0.00868039 0.00868039 -0.000251437 -0.000251437 -0.000251437 -0.000251437 0.030523 0.030523 0.030523 0.030523 0.0156931 0.0156931 0.0156931 0.0156931 -0.00972831 -0.00972831 -0.00972831 -0.00972831 -0.00728988 -0.00728988 -0.00728988 -0.00728988 0.0121476 0.0121476 0.0121476 0.0121476 0.0103331 0.0103331 0.0103331 0.0103331 0.0331789 0.0331789 0.0331789 0.0331789 0.00284001 0.00284001 0.00284001 0.00284001 0.0113708 0.0113708 0.0113708 0.0113708 0.019857 0.019857 0.019857 0.019857 0.0336867 0.0336867 0.0336867 0.0336867 0.0080523 0.0080523 0.0080523 0.0080523 0.0264779 0.0264779 0.0264779 0.0264779 0.0224429 0.0224429 0.0224429 0.0224429 0.0179702 0.0179702 0.0179702 0.0179702 0.0166629 0.0166629 0.0166629 0.0166629 -0.00691373 -0.00691373 -0.00691373 -0.00691373 0.0134934 0.0134934 0.0134934 0.0134934 -0.000550483 -0.000550483 -0.000550483 -0.000550483 -0.000385613 -0.000385613 -0.000385613 -0.000385613 -0.000426521 -0.000426521 -0.000426521 -0.000426521 -0.0107997 -0.0107997 -0.0107997 -0.0107997 0.0315512 0.0315512 0.0315512 0.0315512 -0.0017428 -0.0017428 -0.0017428 -0.0017428 0.00927383 0.00927383 0.00927383 0.00927383 0.0177082 0.0177082 0.0177082 0.0177082 0.00144758 0.00144758 0.00144758 0.00144758 0.0298811 0.0298811 0.0298811 0.0298811 0.0312439 0.0312439 0.0312439 0.0312439 0.033029 0.033029 0.033029 0.033029 0.0124567 0.0124567 0.0124567 0.0124567 0.000139098 0.000139098 0.000139098 0.000139098 0.011678 0.011678 0.011678 0.011678 0.0192521 0.0192521 0.0192521 0.0192521 0.0229291 0.0229291 0.0229291 0.0229291 0.0343402 0.0343402 0.0343402 0.0343402 -0.00069278 -0.00069278 -0.00069278 -0.00069278 -0.0197355 -0.0197355 -0.0197355 -0.0197355 0.032191 0.032191 0.032191 0.032191 0.0296717 0.0296717 0.0296717 0.0296717 0.000546235 0.000546235 0.000546235 0.000546235 3.55998e-11 3.55998e-11 3.55998e-11 3.55998e-11 0.0128968 0.0128968 0.0128968 0.0128968 0.00235874 0.00235874 0.00235874 0.00235874 0.0175618 0.0175618 0.0175618 0.0175618 0.0150859 0.0150859 0.0150859 0.0150859 0.0161972 0.0161972 0.0161972 0.0161972 0.0189566 0.0189566 0.0189566 0.0189566 0.010431 0.010431 0.010431 0.010431 0.0234315 0.0234315 0.0234315 0.0234315 0.0122946 0.0122946 0.0122946 0.0122946 -0.0110897 -0.0110897 -0.0110897 -0.0110897 0.00036269 0.00036269 0.00036269 0.00036269 0.0144702 0.0144702 0.0144702 0.0144702 -0.0287928 -0.0287928 -0.0287928 -0.0287928 0.0292747 0.0292747 0.0292747 0.0292747 -0.00829516 -0.00829516 -0.00829516 -0.00829516 0.00682871 0.00682871 0.00682871 0.00682871 0.031303 0.031303 0.031303 0.031303 0.0094111 0.0094111 0.0094111 0.0094111 0.0191802 0.0191802 0.0191802 0.0191802 0.0187593 0.0187593 0.0187593 0.0187593 0.0151039 0.0151039 0.0151039 0.0151039 0.0129447 0.0129447 0.0129447 0.0129447 -0.0107477 -0.0107477 -0.0107477 -0.0107477 0.00223621 0.00223621 0.00223621 0.00223621 -0.0069286 -0.0069286 -0.0069286 -0.0069286 0.02637 0.02637 0.02637 0.02637 0.0299688 0.0299688 0.0299688 0.0299688 0.0141075 0.0141075 0.0141075 0.0141075 -0.00495393 -0.00495393 -0.00495393 -0.00495393 0.0230049 0.0230049 0.0230049 0.0230049 0.00160264 0.00160264 0.00160264 0.00160264 0.00310353 0.00310353 0.00310353 0.00310353 0.027477 0.027477 0.027477 0.027477 0.0122995 0.0122995 0.0122995 0.0122995 0.0269922 0.0269922 0.0269922 0.0269922 -0.0216266 -0.0216266 -0.0216266 -0.0216266 0.0203944 0.0203944 0.0203944 0.0203944 0.0230412 0.0230412 0.0230412 0.0230412 0.0169363 0.0169363 0.0169363 0.0169363 0.0130525 0.0130525 0.0130525 0.0130525 0.0191701 0.0191701 0.0191701 0.0191701 0.00278932 0.00278932 0.00278932 0.00278932 0.0253023 0.0253023 0.0253023 0.0253023 0.0135686 0.0135686 0.0135686 0.0135686 0.00240192 0.00240192 0.00240192 0.00240192 0.00195252 0.00195252 0.00195252 0.00195252 0.0283519 0.0283519 0.0283519 0.0283519 0.0178536 0.0178536 0.0178536 0.0178536 0.0215711 0.0215711 0.0215711 0.0215711 0.0110831 0.0110831 0.0110831 0.0110831 0.00208509 0.00208509 0.00208509 0.00208509 -0.075959 -0.075959 -0.075959 -0.075959 0.00231845 0.00231845 0.00231845 0.00231845 0.0149644 0.0149644 0.0149644 0.0149644 -0.0725913 -0.0725913 -0.0725913 -0.0725913 -0.0151373 -0.0151373 -0.0151373 -0.0151373 -0.00303662 -0.00303662 -0.00303662 -0.00303662 0.015134 0.015134 0.015134 0.015134 0.00673979 0.00673979 0.00673979 0.00673979 -0.0153442 -0.0153442 -0.0153442 -0.0153442 0.0114462 0.0114462 0.0114462 0.0114462 0.00208516 0.00208516 0.00208516 0.00208516 0.000905329 0.000905329 0.000905329 0.000905329 0.00609817 0.00609817 0.00609817 0.00609817 -0.00716271 -0.00716271 -0.00716271 -0.00716271 0.0226613 0.0226613 0.0226613 0.0226613 0.022341 0.022341 0.022341 0.022341 -2.77113e-11 -2.77113e-11 -2.77113e-11 -2.77113e-11 -0.0803042 -0.0803042 -0.0803042 -0.0803042 0.0110607 0.0110607 0.0110607 0.0110607 -0.000613755 -0.000613755 -0.000613755 -0.000613755 -0.0159758 -0.0159758 -0.0159758 -0.0159758 0.014353 0.014353 0.014353 0.014353 -0.0123012 -0.0123012 -0.0123012 -0.0123012 0.0170226 0.0170226 0.0170226 0.0170226 -0.0546898 -0.0546898 -0.0546898 -0.0546898 0.0167832 0.0167832 0.0167832 0.0167832 0.00619958 0.00619958 0.00619958 0.00619958 -0.00879063 -0.00879063 -0.00879063 -0.00879063 -0.0109571 -0.0109571 -0.0109571 -0.0109571 0.0036939 0.0036939 0.0036939 0.0036939 5.74395e-12 5.74395e-12 5.74395e-12 5.74395e-12 -6.73466e-07 -6.73466e-07 -6.73466e-07 -6.73466e-07 -0.00277141 -0.00277141 -0.00277141 -0.00277141 -1.57361e-10 -1.57361e-10 -1.57361e-10 -1.57361e-10 0.0197431 0.0197431 0.0197431 0.0197431 -0.0119529 -0.0119529 -0.0119529 -0.0119529 0.00782314 0.00782314 0.00782314 0.00782314 0.00906456 0.00906456 0.00906456 0.00906456 0.0187056 0.0187056 0.0187056 0.0187056 0.0316757 0.0316757 0.0316757 0.0316757 0.0252605 0.0252605 0.0252605 0.0252605 0.0244442 0.0244442 0.0244442 0.0244442 -0.0731149 -0.0731149 -0.0731149 -0.0731149 -0.0258732 -0.0258732 -0.0258732 -0.0258732 0.0173979 0.0173979 0.0173979 0.0173979 -0.001175 -0.001175 -0.001175 -0.001175 0.00399914 0.00399914 0.00399914 0.00399914 -0.0671854 -0.0671854 -0.0671854 -0.0671854 -0.0016699 -0.0016699 -0.0016699 -0.0016699 0.0044774 0.0044774 0.0044774 0.0044774 0.0127794 0.0127794 0.0127794 0.0127794 0.0167144 0.0167144 0.0167144 0.0167144 0.0276922 0.0276922 0.0276922 0.0276922 -0.00865565 -0.00865565 -0.00865565 -0.00865565 -0.014934 -0.014934 -0.014934 -0.014934 0.0012476 0.0012476 0.0012476 0.0012476 -0.073922 -0.073922 -0.073922 -0.073922 -0.0599442 -0.0599442 -0.0599442 -0.0599442 -0.0230085 -0.0230085 -0.0230085 -0.0230085 -0.035291 -0.035291 -0.035291 -0.035291 -0.0766424 -0.0766424 -0.0766424 -0.0766424 0.0223281 0.0223281 0.0223281 0.0223281 -0.0224149 -0.0224149 -0.0224149 -0.0224149 0.020566 0.020566 0.020566 0.020566 0.0198479 0.0198479 0.0198479 0.0198479 -0.0128099 -0.0128099 -0.0128099 -0.0128099 -6.77923e-06 -6.77923e-06 -6.77923e-06 -6.77923e-06 -1.27763e-11 -1.27763e-11 -1.27763e-11 -1.27763e-11 -0.00836797 -0.00836797 -0.00836797 -0.00836797 0.0167573 0.0167573 0.0167573 0.0167573 -4.00687e-10 -4.00687e-10 -4.00687e-10 -4.00687e-10 0.00868684 0.00868684 0.00868684 0.00868684 -0.0160572 -0.0160572 -0.0160572 -0.0160572 0.0129949 0.0129949 0.0129949 0.0129949 -0.0127852 -0.0127852 -0.0127852 -0.0127852 -0.00474219 -0.00474219 -0.00474219 -0.00474219 -0.0390705 -0.0390705 -0.0390705 -0.0390705 0.0197229 0.0197229 0.0197229 0.0197229 0.011471 0.011471 0.011471 0.011471 0.0303049 0.0303049 0.0303049 0.0303049 0.0167795 0.0167795 0.0167795 0.0167795 0.0127083 0.0127083 0.0127083 0.0127083 0.00641387 0.00641387 0.00641387 0.00641387 -0.00246065 -0.00246065 -0.00246065 -0.00246065 0.00703121 0.00703121 0.00703121 0.00703121 -0.00224888 -0.00224888 -0.00224888 -0.00224888 -0.00369371 -0.00369371 -0.00369371 -0.00369371 -0.0125725 -0.0125725 -0.0125725 -0.0125725 -0.00717681 -0.00717681 -0.00717681 -0.00717681 0.0281959 0.0281959 0.0281959 0.0281959 0.025571 0.025571 0.025571 0.025571 0.0107719 0.0107719 0.0107719 0.0107719 0.0115442 0.0115442 0.0115442 0.0115442 0.00745708 0.00745708 0.00745708 0.00745708 -0.0195069 -0.0195069 -0.0195069 -0.0195069 0.0154169 0.0154169 0.0154169 0.0154169 -0.0567849 -0.0567849 -0.0567849 -0.0567849 0.0201806 0.0201806 0.0201806 0.0201806 0.0152729 0.0152729 0.0152729 0.0152729 -0.0227643 -0.0227643 -0.0227643 -0.0227643 -0.0591269 -0.0591269 -0.0591269 -0.0591269 0.00488799 0.00488799 0.00488799 0.00488799 -2.85474e-11 -2.85474e-11 -2.85474e-11 -2.85474e-11 0.0115544 0.0115544 0.0115544 0.0115544 0.00696095 0.00696095 0.00696095 0.00696095 -7.00619e-11 -7.00619e-11 -7.00619e-11 -7.00619e-11 0.00157661 0.00157661 0.00157661 0.00157661 0.0270165 0.0270165 0.0270165 0.0270165 0.00951755 0.00951755 0.00951755 0.00951755 0.0118788 0.0118788 0.0118788 0.0118788 -0.000987865 -0.000987865 -0.000987865 -0.000987865 0.0108155 0.0108155 0.0108155 0.0108155 0.0151048 0.0151048 0.0151048 0.0151048 1.75407e-11 1.75407e-11 1.75407e-11 1.75407e-11 -0.00582027 -0.00582027 -0.00582027 -0.00582027 0.0302837 0.0302837 0.0302837 0.0302837 0.005216 0.005216 0.005216 0.005216 0.0254163 0.0254163 0.0254163 0.0254163 -0.00799883 -0.00799883 -0.00799883 -0.00799883 -0.00503711 -0.00503711 -0.00503711 -0.00503711 0.00121711 0.00121711 0.00121711 0.00121711 0.00889331 0.00889331 0.00889331 0.00889331 -0.0186056 -0.0186056 -0.0186056 -0.0186056 -1.89706e-11 -1.89706e-11 -1.89706e-11 -1.89706e-11 -0.024958 -0.024958 -0.024958 -0.024958 -0.0438537 -0.0438537 -0.0438537 -0.0438537 0.0163054 0.0163054 0.0163054 0.0163054 -0.0567901 -0.0567901 -0.0567901 -0.0567901 -0.0271475 -0.0271475 -0.0271475 -0.0271475 -0.000293675 -0.000293675 -0.000293675 -0.000293675 -6.6371e-12 -6.6371e-12 -6.6371e-12 -6.6371e-12 -0.0491217 -0.0491217 -0.0491217 -0.0491217 -2.67471e-11 -2.67471e-11 -2.67471e-11 -2.67471e-11 1.86e-11 1.86e-11 1.86e-11 1.86e-11 -0.0233567 -0.0233567 -0.0233567 -0.0233567 0.0257082 0.0257082 0.0257082 0.0257082 0.00973688 0.00973688 0.00973688 0.00973688 -0.000239719 -0.000239719 -0.000239719 -0.000239719 -0.00299233 -0.00299233 -0.00299233 -0.00299233 -2.85332e-11 -2.85332e-11 -2.85332e-11 -2.85332e-11 0.00825667 0.00825667 0.00825667 0.00825667 0.0082962 0.0082962 0.0082962 0.0082962 -5.80046e-11 -5.80046e-11 -5.80046e-11 -5.80046e-11 0.0444548 0.0444548 0.0444548 0.0444548 0.000418661 0.000418661 0.000418661 0.000418661 0.0125773 0.0125773 0.0125773 0.0125773 0.0140276 0.0140276 0.0140276 0.0140276 -1.03678e-11 -1.03678e-11 -1.03678e-11 -1.03678e-11 -0.01227 -0.01227 -0.01227 -0.01227 -0.0311472 -0.0311472 -0.0311472 -0.0311472 -0.0839827 -0.0839827 -0.0839827 -0.0839827 0.025194 0.025194 0.025194 0.025194 -0.0251439 -0.0251439 -0.0251439 -0.0251439 -0.0203413 -0.0203413 -0.0203413 -0.0203413 -0.00598128 -0.00598128 -0.00598128 -0.00598128 0.00381259 0.00381259 0.00381259 0.00381259 0.00608833 0.00608833 0.00608833 0.00608833 -0.0697107 -0.0697107 -0.0697107 -0.0697107 -0.0108005 -0.0108005 -0.0108005 -0.0108005 0.0114886 0.0114886 0.0114886 0.0114886 -0.0544055 -0.0544055 -0.0544055 -0.0544055 0.0291167 0.0291167 0.0291167 0.0291167 -7.5305e-12 -7.5305e-12 -7.5305e-12 -7.5305e-12 0.0198816 0.0198816 0.0198816 0.0198816 -0.0486924 -0.0486924 -0.0486924 -0.0486924 0.0041993 0.0041993 0.0041993 0.0041993 0.0195177 0.0195177 0.0195177 0.0195177 -0.0114947 -0.0114947 -0.0114947 -0.0114947 0.0084167 0.0084167 0.0084167 0.0084167 -0.000230508 -0.000230508 -0.000230508 -0.000230508 0.017317 0.017317 0.017317 0.017317 -3.6972e-10 -3.6972e-10 -3.6972e-10 -3.6972e-10 0.00617313 0.00617313 0.00617313 0.00617313 2.17714e-11 2.17714e-11 2.17714e-11 2.17714e-11 -0.00210102 -0.00210102 -0.00210102 -0.00210102 0.013659 0.013659 0.013659 0.013659 9.74354e-11 9.74354e-11 9.74354e-11 9.74354e-11 0.0151723 0.0151723 0.0151723 0.0151723 -0.0674465 -0.0674465 -0.0674465 -0.0674465 0.00100925 0.00100925 0.00100925 0.00100925 -0.0437103 -0.0437103 -0.0437103 -0.0437103 0.0359234 0.0359234 0.0359234 0.0359234 -0.0498954 -0.0498954 -0.0498954 -0.0498954 -0.0476747 -0.0476747 -0.0476747 -0.0476747 -6.01195e-12 -6.01195e-12 -6.01195e-12 -6.01195e-12 0.00734922 0.00734922 0.00734922 0.00734922 0.0196499 0.0196499 0.0196499 0.0196499 0.0307572 0.0307572 0.0307572 0.0307572 0.000680987 0.000680987 0.000680987 0.000680987 0.00549119 0.00549119 0.00549119 0.00549119 -0.00192331 -0.00192331 -0.00192331 -0.00192331 -1.06522e-10 -1.06522e-10 -1.06522e-10 -1.06522e-10 -1.39458e-11 -1.39458e-11 -1.39458e-11 -1.39458e-11 -3.86524e-11 -3.86524e-11 -3.86524e-11 -3.86524e-11 -0.00715831 -0.00715831 -0.00715831 -0.00715831 -0.00301095 -0.00301095 -0.00301095 -0.00301095 0.000865046 0.000865046 0.000865046 0.000865046 -1.58822e-10 -1.58822e-10 -1.58822e-10 -1.58822e-10 -5.86777e-12 -5.86777e-12 -5.86777e-12 -5.86777e-12 0.0189826 0.0189826 0.0189826 0.0189826 0.0167195 0.0167195 0.0167195 0.0167195 0.0151706 0.0151706 0.0151706 0.0151706 0.0230354 0.0230354 0.0230354 0.0230354 0.013078 0.013078 0.013078 0.013078 -0.013413 -0.013413 -0.013413 -0.013413 -0.00964342 -0.00964342 -0.00964342 -0.00964342 -1.852e-10 -1.852e-10 -1.852e-10 -1.852e-10 0.003248 0.003248 0.003248 0.003248 0.0335639 0.0335639 0.0335639 0.0335639 0.00792658 0.00792658 0.00792658 0.00792658 -1.72904e-10 -1.7